% Model:              Untitled.mph
% Version:            COMSOL 6.2.0.339
% Date:               Mar 3 2026, 15:15
% Dimension:          1
% Nodes:              97
% Expressions:        1
% Description:        Point graph
% freq (Hz)               Total acoustic pressure
80                        0.7022621348322617
100                       1.09258013191768
120                       1.565060484642624
140                       2.116990529939511
160                       2.7451934730871135
180                       3.4460427398060935
200                       4.215478313897283
220                       5.049025001105162
240                       5.941812498446186
260                       6.888597051865809
280                       7.883785457119113
300                       8.921459511529314
320                       9.995402806891786
340                       11.099127975656089
360                       12.225906439877544
380                       13.36879796342674
400                       14.520681473748004
420                       15.67428681716861
440                       16.822226799819383
460                       17.95703226786134
480                       19.071182070822033
500                       20.157138373065294
520                       21.20738086401322
540                       22.214439497362154
560                       23.170932009543733
580                       24.069586992704572
600                       24.903290253607246
620                       25.66510894075678
640                       26.348325759778255
660                       26.94647609119364
680                       27.453366341786474
700                       27.863116353887833
720                       28.170176101516255
740                       28.369359812907916
760                       28.45588867489087
780                       28.42538330575777
800                       28.27391172422206
820                       27.997995683031952
840                       27.594653117276195
860                       27.061399808885582
880                       26.396266083306926
900                       25.597819151236934
920                       24.66519078788547
940                       23.598059717395593
960                       22.39668149918275
980                       21.061896446852252
1000                      19.5951244679622
1020                      17.998380846467764
1040                      16.274273638074668
1060                      14.425994773241726
1080                      12.45732645197958
1100                      10.372635274397188
1120                      8.176865448914953
1140                      5.875516714842076
1160                      3.474646996599491
1180                      0.9808466902330402
1200                      -1.5987702036827391
1220                      -4.256592682634619
1240                      -6.984534498616825
1260                      -9.774060374566536
1280                      -12.616211746630075
1300                      -15.501617401528883
1320                      -18.42056402764505
1340                      -21.362991515853054
1360                      -24.318554700877165
1380                      -27.276649766307273
1400                      -30.226446216866773
1420                      -33.15695522848853
1440                      -36.0570262704379
1460                      -38.91542841396671
1480                      -41.72089011852498
1500                      -44.46213828063858
1520                      -47.12793544092381
1540                      -49.707144385853454
1560                      -52.1887626234661
1580                      -54.56196583437906
1600                      -56.816159268076625
1620                      -58.941075396718155
1640                      -60.92669826540172
1660                      -62.76343213991781
1680                      -64.44204768271997
1700                      -65.95383867079082
1720                      -67.29056246970386
1740                      -68.44450582941903
1760                      -69.40851795795031
1780                      -70.17609448586413
1800                      -70.74129278068283
1820                      -71.0989681591897
1840                      -71.24458150193237
1860                      -71.17432104989098
1880                      -70.88513586131647
1900                      -70.37471741718224
1920                      -69.64155673839109
1940                      -68.6848980839299
1960                      -67.50480642757066
1980                      -66.10212423025068
2000                      -64.47850965023345
