% Model:              new_broken_cubic.mph
% Version:            COMSOL 6.2.0.339
% Date:               Jan 28 2026, 12:28
% Dimension:          1
% Nodes:              97
% Expressions:        1
% Description:        Global
% freq (Hz)               Value
80                        0.006986110116581646
100                       0.010838558569821145
120                       0.015474093690013726
140                       0.02085204734634339
160                       0.026927030250785945
180                       0.03365007241306854
200                       0.04096980775075332
220                       0.04883366368038416
240                       0.05718902014159878
260                       0.06598430765960084
280                       0.07517002023945545
300                       0.08469962560227334
320                       0.09453036204430539
340                       0.10462391761998255
360                       0.11494699310485347
380                       0.12547175507214484
400                       0.13617618930306288
420                       0.14704436762162088
440                       0.15806664314574176
460                       0.16923978997494696
480                       0.18056710362097045
500                       0.1920584781726906
520                       0.2037304754114945
540                       0.21560639998274012
560                       0.2277163933857702
580                       0.24009755804273022
600                       0.25279412108435717
620                       0.265857645753794
640                       0.27934729644252987
660                       0.29333016126013967
680                       0.3078816335804378
700                       0.32308585102900705
720                       0.33903618665054036
740                       0.35583578222003415
760                       0.373598107462306
780                       0.39244752085377904
800                       0.41251979713038217
820                       0.43396257295201823
840                       0.45693564461735664
860                       0.48161102947359935
880                       0.5081726749340183
900                       0.5368156651798093
920                       0.5677447354654457
940                       0.6011718580469106
960                       0.6373126140520096
980                       0.6763810162358129
1000                      0.7185824058798019
1020                      0.7641040249895427
1040                      0.8131028801273836
1060                      0.8656905910999614
1080                      0.9219150871576788
1100                      0.9817393099725683
1120                      1.045017538173094
1140                      1.11147057917454
1160                      1.1806618631649237
1180                      1.2519773469753364
1200                      1.324612939090543
1220                      1.3975736520257602
1240                      1.4696885733900424
1260                      1.5396447299294727
1280                      1.6060408361782827
1300                      1.6674588763472147
1320                      1.7225479363049194
1340                      1.7701114948114767
1360                      1.809187456162644
1380                      1.839110323838646
1400                      1.8595473053784026
1420                      1.8705043284441887
1440                      1.8723028826051762
1460                      1.8655330236146255
1480                      1.8509907791568498
1500                      1.829609130839354
1520                      1.8023908818337624
1540                      1.770349645946931
1560                      1.7344626460564534
1580                      1.6956366143841954
1600                      1.654686231647478
1620                      1.6123233636394927
1640                      1.5691548024893969
1660                      1.5256861466751546
1680                      1.4823296847230245
1700                      1.439414529768924
1720                      1.3971976743393455
1740                      1.3558750279875587
1760                      1.3155918305701935
1780                      1.2764520906258288
1800                      1.2385268853103313
1820                      1.2018614862682122
1840                      1.1664813573610158
1860                      1.1323971174129122
1880                      1.0996085843060668
1900                      1.0681080238948195
1920                      1.0378827242636413
1940                      1.008917007027889
1960                      0.9811937755036305
1980                      0.9546956864759655
2000                      0.9294060190903646
